         Total SCF energy =   -644.661205185871
@ Step       Energy      Delta E   Gmax     Grms     Xrms     Xmax   Walltime
@ ---- ---------------- -------- -------- -------- -------- -------- --------
@    0    -644.66120519  0.0D+00  0.03673  0.00776  0.00000  0.00000     33.9
         Total SCF energy =   -644.673100267060
         Total SCF energy =   -644.673625460902
@    1    -644.67362546 -1.2D-02  0.02098  0.00283  0.09465  0.21978     79.1
         Total SCF energy =   -644.674909375679
         Total SCF energy =   -644.674937262610
@    2    -644.67493726 -1.3D-03  0.00798  0.00126  0.07127  0.15281    125.2
         Total SCF energy =   -644.675286391126
         Total SCF energy =   -644.675286391126
@    3    -644.67528639 -3.5D-04  0.00296  0.00061  0.03396  0.11035    156.2
         Total SCF energy =   -644.675439426062
         Total SCF energy =   -644.675439426062
@    4    -644.67543943 -1.5D-04  0.00337  0.00063  0.03219  0.09307    184.8
         Total SCF energy =   -644.675551771107
         Total SCF energy =   -644.675553250602
@    5    -644.67555325 -1.1D-04  0.00125  0.00031  0.01540  0.04937    228.2
         Total SCF energy =   -644.675614618952
         Total SCF energy =   -644.675625331342
@    6    -644.67562533 -7.2D-05  0.00082  0.00024  0.01839  0.04588    271.5
         Total SCF energy =   -644.675664607544
         Total SCF energy =   -644.675674275054
@    7    -644.67567428 -4.9D-05  0.00091  0.00018  0.01948  0.05425    315.9
         Total SCF energy =   -644.675684155411
         Total SCF energy =   -644.675684155411
@    8    -644.67568416 -9.9D-06  0.00019  0.00006  0.00636  0.02047    344.2
         Total SCF energy =   -644.675688180762
         Total SCF energy =   -644.675688900225
@    9    -644.67568890 -4.7D-06  0.00032  0.00009  0.00393  0.01155    386.0
         Total SCF energy =   -644.675691626451
         Total SCF energy =   -644.675692767977
@   10    -644.67569277 -3.9D-06  0.00038  0.00006  0.00469  0.01315    428.2
         Total SCF energy =   -644.675694496508
         Total SCF energy =   -644.675694512818
@   11    -644.67569451 -1.7D-06  0.00023  0.00004  0.00393  0.01295    471.8
         Total SCF energy =   -644.675695536644
         Total SCF energy =   -644.675694799378
@   12    -644.67569480 -2.9D-07  0.00066  0.00011  0.00674  0.01995    572.3
         Total SCF energy =   -644.675696457825
         Total SCF energy =   -644.675696457825
@   13    -644.67569646 -1.7D-06  0.00005  0.00002  0.00335  0.00900    600.6
         Total SCF energy =   -644.675696854040
         Total SCF energy =   -644.675696932047
@   14    -644.67569693 -4.7D-07  0.00005  0.00001  0.00114  0.00318    641.7
         Total SCF energy =   -644.675699034869
         Total SCF energy =   -644.675699813017
@   15    -644.67569981 -2.9D-06  0.00054  0.00009  0.00594  0.02391    684.9
         Total SCF energy =   -644.675702046464
         Total SCF energy =   -644.675704420538
@   16    -644.67570442 -4.6D-06  0.00056  0.00008  0.01308  0.04517    730.0
         Total SCF energy =   -644.675706104325
         Total SCF energy =   -644.675706113971
@   17    -644.67570611 -1.7D-06  0.00047  0.00006  0.00301  0.00952    774.4
         Total SCF energy =   -644.675706502353

 Vector   46  Occ=2.000000D+00  E=-3.656861D-01

 Vector   47  Occ=2.000000D+00  E=-3.536135D-01

 Vector   48  Occ=0.000000D+00  E= 7.435128D-02

 Vector   49  Occ=0.000000D+00  E= 1.277649D-01

 Vector   50  Occ=0.000000D+00  E= 1.698366D-01

 Vector   51  Occ=0.000000D+00  E= 2.116991D-01

 Vector   52  Occ=0.000000D+00  E= 2.200986D-01

 Vector   53  Occ=0.000000D+00  E= 2.333349D-01

 Vector   54  Occ=0.000000D+00  E= 2.568388D-01

 Vector   55  Occ=0.000000D+00  E= 2.852996D-01

 Vector   56  Occ=0.000000D+00  E= 2.954823D-01

 Vector   57  Occ=0.000000D+00  E= 3.139881D-01

 Vector   58  Occ=0.000000D+00  E= 3.201944D-01

 Vector   59  Occ=0.000000D+00  E= 3.308389D-01

 Vector   60  Occ=0.000000D+00  E= 3.512438D-01

 Vector   61  Occ=0.000000D+00  E= 3.717984D-01

 Vector   62  Occ=0.000000D+00  E= 4.061795D-01

 Vector   63  Occ=0.000000D+00  E= 4.211834D-01

 Vector   64  Occ=0.000000D+00  E= 4.292474D-01

 Vector   65  Occ=0.000000D+00  E= 4.576171D-01

 Vector   66  Occ=0.000000D+00  E= 4.849967D-01

 Vector   67  Occ=0.000000D+00  E= 4.986178D-01

 Vector   68  Occ=0.000000D+00  E= 4.988549D-01

 Vector   69  Occ=0.000000D+00  E= 5.388629D-01

         Total SCF energy =   -644.675706502353
@   18    -644.67570650 -3.9D-07  0.00004  0.00001  0.00067  0.00291    803.3
         Total SCF energy =   -644.675706610065

 Vector   14  Occ=2.000000D+00  E=-1.498265D+00

 Vector   15  Occ=2.000000D+00  E=-1.487583D+00

 Vector   16  Occ=2.000000D+00  E=-1.391652D+00

 Vector   17  Occ=2.000000D+00  E=-1.382662D+00

 Vector   18  Occ=2.000000D+00  E=-1.191589D+00

 Vector   19  Occ=2.000000D+00  E=-1.073272D+00

 Vector   20  Occ=2.000000D+00  E=-1.064641D+00

 Vector   21  Occ=2.000000D+00  E=-1.022210D+00

 Vector   22  Occ=2.000000D+00  E=-9.258296D-01

 Vector   23  Occ=2.000000D+00  E=-8.774360D-01

 Vector   24  Occ=2.000000D+00  E=-8.373255D-01

 Vector   25  Occ=2.000000D+00  E=-8.044815D-01

 Vector   26  Occ=2.000000D+00  E=-7.343347D-01

 Vector   27  Occ=2.000000D+00  E=-7.187084D-01

 Vector   28  Occ=2.000000D+00  E=-6.995103D-01

 Vector   29  Occ=2.000000D+00  E=-6.938035D-01

 Vector   30  Occ=2.000000D+00  E=-6.749432D-01

 Vector   31  Occ=2.000000D+00  E=-6.682773D-01

 Vector   32  Occ=2.000000D+00  E=-6.478795D-01

 Vector   33  Occ=2.000000D+00  E=-6.360832D-01

 Vector   34  Occ=2.000000D+00  E=-6.258409D-01

 Vector   35  Occ=2.000000D+00  E=-5.913523D-01

 Vector   36  Occ=2.000000D+00  E=-5.854604D-01

 Vector   37  Occ=2.000000D+00  E=-5.767589D-01

 Vector   38  Occ=2.000000D+00  E=-5.619610D-01

 Vector   39  Occ=2.000000D+00  E=-5.386600D-01

 Vector   40  Occ=2.000000D+00  E=-5.223921D-01

 Vector   41  Occ=2.000000D+00  E=-5.195636D-01

 Vector   42  Occ=2.000000D+00  E=-4.873079D-01

 Vector   43  Occ=2.000000D+00  E=-4.716432D-01

 Vector   44  Occ=2.000000D+00  E=-4.640503D-01

 Vector   45  Occ=2.000000D+00  E=-4.544311D-01

 Vector   46  Occ=2.000000D+00  E=-3.656888D-01

 Vector   47  Occ=2.000000D+00  E=-3.536105D-01

 Vector   48  Occ=0.000000D+00  E= 7.435040D-02

 Vector   49  Occ=0.000000D+00  E= 1.277622D-01

 Vector   50  Occ=0.000000D+00  E= 1.698409D-01

 Vector   51  Occ=0.000000D+00  E= 2.116782D-01

 Vector   52  Occ=0.000000D+00  E= 2.200984D-01

 Vector   53  Occ=0.000000D+00  E= 2.333322D-01

 Vector   54  Occ=0.000000D+00  E= 2.568644D-01

 Vector   55  Occ=0.000000D+00  E= 2.852985D-01

 Vector   56  Occ=0.000000D+00  E= 2.954869D-01

 Vector   57  Occ=0.000000D+00  E= 3.139866D-01

 Vector   58  Occ=0.000000D+00  E= 3.201957D-01

 Vector   59  Occ=0.000000D+00  E= 3.308524D-01

 Vector   60  Occ=0.000000D+00  E= 3.512454D-01

 Vector   61  Occ=0.000000D+00  E= 3.717806D-01

 Vector   62  Occ=0.000000D+00  E= 4.061984D-01

 Vector   63  Occ=0.000000D+00  E= 4.211803D-01

 Vector   64  Occ=0.000000D+00  E= 4.292361D-01

 Vector   65  Occ=0.000000D+00  E= 4.576111D-01

 Vector   66  Occ=0.000000D+00  E= 4.849767D-01

 Vector   67  Occ=0.000000D+00  E= 4.986150D-01

 Vector   68  Occ=0.000000D+00  E= 4.988648D-01

 Vector   69  Occ=0.000000D+00  E= 5.388707D-01

       Multipole analysis of the density wrt the origin
       ------------------------------------------------

     L   x y z        total         open         nuclear
     -   - - -        -----         ----         -------
     0   0 0 0     -0.000000      0.000000     94.000000

     1   1 0 0      0.778998      0.000000      1.913931
     1   0 1 0      0.244024      0.000000      1.257217
     1   0 0 1     -0.907273      0.000000      6.634940

     2   2 0 0    -53.228938      0.000000    735.541163
     2   1 1 0     -7.290042      0.000000    -50.317866
     2   1 0 1      0.056555      0.000000    -31.167579
     2   0 2 0    -44.773568      0.000000   1259.550000
     2   0 1 1     -3.501644      0.000000     13.906278

         Total SCF energy =   -644.675706610065
@   19    -644.67570661 -1.1D-07  0.00005  0.00001  0.00058  0.00177    830.8
@   19    -644.67570661 -1.1D-07  0.00005  0.00001  0.00058  0.00177    830.8

 Output coordinates in angstroms (scale by  1.889725989 to convert to a.u.)

  No.       Tag          Charge          X              Y              Z
 ---- ---------------- ---------- -------------- -------------- --------------
    1 C                    6.0000    -0.32806997    -2.30196466     0.18315146
    2 C                    6.0000     1.97046148    -0.86425678    -0.34451626
    3 C                    6.0000     0.88978703    -2.95248874     0.14351227
    4 C                    6.0000     2.04322763    -2.22875589    -0.12447070
    5 C                    6.0000     0.43339088     3.44767201    -0.29921903
    6 C                    6.0000    -0.42438071    -0.92753171    -0.04146624
    7 C                    6.0000     0.74807700    -0.22001657    -0.29979057
    8 O                    8.0000    -2.77945827    -1.00914352     0.26231338
    9 O                    8.0000     0.47043305     1.86760950     1.52352055
   10 O                    8.0000    -1.88524916     0.96536540    -0.23934025
   11 C                    6.0000    -1.78393794    -0.35640418     0.01522933
   12 C                    6.0000     0.53721557     2.11130328     0.34519234
   13 O                    8.0000     0.75832376     1.13806548    -0.59279907
   14 H                    1.0000    -2.78479083     1.27826333    -0.17227027
   15 H                    1.0000    -1.22962771    -2.84250816     0.38603501
   16 H                    1.0000     2.84612126    -0.28543743    -0.55474381
   17 H                    1.0000     0.93938127    -4.00857323     0.31804276
   18 H                    1.0000     2.99483396    -2.72178533    -0.16017044
   19 H                    1.0000    -0.40775002     3.44779652    -0.97880012
   20 H                    1.0000     0.30249467     4.20660976     0.45486562
   21 H                    1.0000     1.32512516     3.65040979    -0.87719171

 Total times  cpu:      715.4s     wall:      831.3s
