         Total SCF energy =   -644.661205185867
@ Step       Energy      Delta E   Gmax     Grms     Xrms     Xmax   Walltime
@ ---- ---------------- -------- -------- -------- -------- -------- --------
@    0    -644.66120519  0.0D+00  0.03673  0.00776  0.00000  0.00000     22.1
         Total SCF energy =   -644.673100267061
         Total SCF energy =   -644.673625460900
@    1    -644.67362546 -1.2D-02  0.02098  0.00283  0.09465  0.21978     50.8
         Total SCF energy =   -644.674909375666
         Total SCF energy =   -644.674937262609
@    2    -644.67493726 -1.3D-03  0.00798  0.00126  0.07127  0.15281     80.4
         Total SCF energy =   -644.675286391103
         Total SCF energy =   -644.675286391103
@    3    -644.67528639 -3.5D-04  0.00296  0.00061  0.03396  0.11035    100.6
         Total SCF energy =   -644.675439426058
         Total SCF energy =   -644.675439426058
@    4    -644.67543943 -1.5D-04  0.00337  0.00063  0.03219  0.09307    119.7
         Total SCF energy =   -644.675551771099
         Total SCF energy =   -644.675553250603
@    5    -644.67555325 -1.1D-04  0.00125  0.00031  0.01540  0.04937    148.3
         Total SCF energy =   -644.675614618966
         Total SCF energy =   -644.675625331342
@    6    -644.67562533 -7.2D-05  0.00082  0.00024  0.01839  0.04588    177.4
         Total SCF energy =   -644.675664607523
         Total SCF energy =   -644.675674275039
@    7    -644.67567428 -4.9D-05  0.00091  0.00018  0.01948  0.05425    206.6
         Total SCF energy =   -644.675684155407
         Total SCF energy =   -644.675684155407
@    8    -644.67568416 -9.9D-06  0.00019  0.00006  0.00636  0.02047    226.1
         Total SCF energy =   -644.675688180757
         Total SCF energy =   -644.675688900232
@    9    -644.67568890 -4.7D-06  0.00032  0.00009  0.00393  0.01155    254.4
         Total SCF energy =   -644.675691626462
         Total SCF energy =   -644.675692767991
@   10    -644.67569277 -3.9D-06  0.00038  0.00006  0.00469  0.01315    283.0
         Total SCF energy =   -644.675694496508
         Total SCF energy =   -644.675694512738
@   11    -644.67569451 -1.7D-06  0.00023  0.00004  0.00393  0.01295    311.3
         Total SCF energy =   -644.675695536611
         Total SCF energy =   -644.675694798017
@   12    -644.67569480 -2.9D-07  0.00066  0.00011  0.00675  0.01996    339.9
         Total SCF energy =   -644.675696457805
         Total SCF energy =   -644.675696457805
@   13    -644.67569646 -1.7D-06  0.00005  0.00002  0.00335  0.00901    359.0
         Total SCF energy =   -644.675696854011
         Total SCF energy =   -644.675696932204
@   14    -644.67569693 -4.7D-07  0.00005  0.00001  0.00114  0.00318    386.9
         Total SCF energy =   -644.675699035952
         Total SCF energy =   -644.675699814151
@   15    -644.67569981 -2.9D-06  0.00054  0.00009  0.00594  0.02390    415.4
         Total SCF energy =   -644.675702048157
         Total SCF energy =   -644.675704415453
@   16    -644.67570442 -4.6D-06  0.00056  0.00008  0.01310  0.04523    444.3
         Total SCF energy =   -644.675706104545
         Total SCF energy =   -644.675706111765
@   17    -644.67570611 -1.7D-06  0.00047  0.00006  0.00303  0.00952    472.9
         Total SCF energy =   -644.675706502983

 Vector   46  Occ=2.000000D+00  E=-3.656862D-01

 Vector   47  Occ=2.000000D+00  E=-3.536135D-01

 Vector   48  Occ=0.000000D+00  E= 7.435128D-02

 Vector   49  Occ=0.000000D+00  E= 1.277649D-01

 Vector   50  Occ=0.000000D+00  E= 1.698366D-01

 Vector   51  Occ=0.000000D+00  E= 2.116991D-01

 Vector   52  Occ=0.000000D+00  E= 2.200986D-01

 Vector   53  Occ=0.000000D+00  E= 2.333349D-01

 Vector   54  Occ=0.000000D+00  E= 2.568387D-01

 Vector   55  Occ=0.000000D+00  E= 2.852996D-01

 Vector   56  Occ=0.000000D+00  E= 2.954823D-01

 Vector   57  Occ=0.000000D+00  E= 3.139881D-01

 Vector   58  Occ=0.000000D+00  E= 3.201944D-01

 Vector   59  Occ=0.000000D+00  E= 3.308389D-01

 Vector   60  Occ=0.000000D+00  E= 3.512438D-01

 Vector   61  Occ=0.000000D+00  E= 3.717985D-01

 Vector   62  Occ=0.000000D+00  E= 4.061796D-01

 Vector   63  Occ=0.000000D+00  E= 4.211834D-01

 Vector   64  Occ=0.000000D+00  E= 4.292474D-01

 Vector   65  Occ=0.000000D+00  E= 4.576172D-01

 Vector   66  Occ=0.000000D+00  E= 4.849966D-01

 Vector   67  Occ=0.000000D+00  E= 4.986178D-01

 Vector   68  Occ=0.000000D+00  E= 4.988550D-01

 Vector   69  Occ=0.000000D+00  E= 5.388630D-01

         Total SCF energy =   -644.675706502983
@   18    -644.67570650 -3.9D-07  0.00004  0.00001  0.00067  0.00291    491.9
         Total SCF energy =   -644.675706608916

 Vector   14  Occ=2.000000D+00  E=-1.498265D+00

 Vector   15  Occ=2.000000D+00  E=-1.487583D+00

 Vector   16  Occ=2.000000D+00  E=-1.391652D+00

 Vector   17  Occ=2.000000D+00  E=-1.382662D+00

 Vector   18  Occ=2.000000D+00  E=-1.191590D+00

 Vector   19  Occ=2.000000D+00  E=-1.073272D+00

 Vector   20  Occ=2.000000D+00  E=-1.064641D+00

 Vector   21  Occ=2.000000D+00  E=-1.022210D+00

 Vector   22  Occ=2.000000D+00  E=-9.258297D-01

 Vector   23  Occ=2.000000D+00  E=-8.774360D-01

 Vector   24  Occ=2.000000D+00  E=-8.373256D-01

 Vector   25  Occ=2.000000D+00  E=-8.044815D-01

 Vector   26  Occ=2.000000D+00  E=-7.343347D-01

 Vector   27  Occ=2.000000D+00  E=-7.187085D-01

 Vector   28  Occ=2.000000D+00  E=-6.995103D-01

 Vector   29  Occ=2.000000D+00  E=-6.938035D-01

 Vector   30  Occ=2.000000D+00  E=-6.749432D-01

 Vector   31  Occ=2.000000D+00  E=-6.682773D-01

 Vector   32  Occ=2.000000D+00  E=-6.478797D-01

 Vector   33  Occ=2.000000D+00  E=-6.360832D-01

 Vector   34  Occ=2.000000D+00  E=-6.258409D-01

 Vector   35  Occ=2.000000D+00  E=-5.913523D-01

 Vector   36  Occ=2.000000D+00  E=-5.854604D-01

 Vector   37  Occ=2.000000D+00  E=-5.767588D-01

 Vector   38  Occ=2.000000D+00  E=-5.619610D-01

 Vector   39  Occ=2.000000D+00  E=-5.386600D-01

 Vector   40  Occ=2.000000D+00  E=-5.223921D-01

 Vector   41  Occ=2.000000D+00  E=-5.195636D-01

 Vector   42  Occ=2.000000D+00  E=-4.873080D-01

 Vector   43  Occ=2.000000D+00  E=-4.716432D-01

 Vector   44  Occ=2.000000D+00  E=-4.640503D-01

 Vector   45  Occ=2.000000D+00  E=-4.544310D-01

 Vector   46  Occ=2.000000D+00  E=-3.656888D-01

 Vector   47  Occ=2.000000D+00  E=-3.536105D-01

 Vector   48  Occ=0.000000D+00  E= 7.435040D-02

 Vector   49  Occ=0.000000D+00  E= 1.277622D-01

 Vector   50  Occ=0.000000D+00  E= 1.698410D-01

 Vector   51  Occ=0.000000D+00  E= 2.116782D-01

 Vector   52  Occ=0.000000D+00  E= 2.200984D-01

 Vector   53  Occ=0.000000D+00  E= 2.333322D-01

 Vector   54  Occ=0.000000D+00  E= 2.568644D-01

 Vector   55  Occ=0.000000D+00  E= 2.852985D-01

 Vector   56  Occ=0.000000D+00  E= 2.954869D-01

 Vector   57  Occ=0.000000D+00  E= 3.139867D-01

 Vector   58  Occ=0.000000D+00  E= 3.201958D-01

 Vector   59  Occ=0.000000D+00  E= 3.308523D-01

 Vector   60  Occ=0.000000D+00  E= 3.512453D-01

 Vector   61  Occ=0.000000D+00  E= 3.717808D-01

 Vector   62  Occ=0.000000D+00  E= 4.061983D-01

 Vector   63  Occ=0.000000D+00  E= 4.211803D-01

 Vector   64  Occ=0.000000D+00  E= 4.292362D-01

 Vector   65  Occ=0.000000D+00  E= 4.576111D-01

 Vector   66  Occ=0.000000D+00  E= 4.849767D-01

 Vector   67  Occ=0.000000D+00  E= 4.986150D-01

 Vector   68  Occ=0.000000D+00  E= 4.988648D-01

 Vector   69  Occ=0.000000D+00  E= 5.388707D-01

       Multipole analysis of the density wrt the origin
       ------------------------------------------------

     L   x y z        total         open         nuclear
     -   - - -        -----         ----         -------
     0   0 0 0      0.000000      0.000000     94.000000

     1   1 0 0      0.778997      0.000000      1.913961
     1   0 1 0      0.244022      0.000000      1.257241
     1   0 0 1     -0.907279      0.000000      6.635034

     2   2 0 0    -53.228945      0.000000    735.541095
     2   1 1 0     -7.290042      0.000000    -50.318060
     2   1 0 1      0.056567      0.000000    -31.167545
     2   0 2 0    -44.773568      0.000000   1259.550153
     2   0 1 1     -3.501654      0.000000     13.906284

         Total SCF energy =   -644.675706608916
@   19    -644.67570661 -1.1D-07  0.00005  0.00001  0.00058  0.00177    510.8
@   19    -644.67570661 -1.1D-07  0.00005  0.00001  0.00058  0.00177    510.8

 Output coordinates in angstroms (scale by  1.889725989 to convert to a.u.)

  No.       Tag          Charge          X              Y              Z
 ---- ---------------- ---------- -------------- -------------- --------------
    1 C                    6.0000    -0.32806947    -2.30196408     0.18315602
    2 C                    6.0000     1.97046165    -0.86425739    -0.34451679
    3 C                    6.0000     0.88978704    -2.95248876     0.14351327
    4 C                    6.0000     2.04322727    -2.22875672    -0.12447290
    5 C                    6.0000     0.43339004     3.44767216    -0.29921862
    6 C                    6.0000    -0.42438016    -0.92753138    -0.04146300
    7 C                    6.0000     0.74807769    -0.22001665    -0.29978859
    8 O                    8.0000    -2.77945875    -1.00914246     0.26231238
    9 O                    8.0000     0.47043318     1.86761056     1.52352151
   10 O                    8.0000    -1.88524820     0.96536514    -0.23934158
   11 C                    6.0000    -1.78393765    -0.35640391     0.01522971
   12 C                    6.0000     0.53721544     2.11130356     0.34519310
   13 O                    8.0000     0.75832477     1.13806537    -0.59279745
   14 H                    1.0000    -2.78479013     1.27826272    -0.17227765
   15 H                    1.0000    -1.22962743    -2.84250761     0.38603806
   16 H                    1.0000     2.84612146    -0.28543852    -0.55474569
   17 H                    1.0000     0.93938102    -4.00857348     0.31804249
   18 H                    1.0000     2.99483318    -2.72178669    -0.16017610
   19 H                    1.0000    -0.40775011     3.44779616    -0.97880067
   20 H                    1.0000     0.30249203     4.20660939     0.45486621
   21 H                    1.0000     1.32512523     3.65041149    -0.87718949

 Total times  cpu:      493.5s     wall:      510.8s
