                         Program Version 2.9.1 -  RELEASE  -
|  1> ! rks b3lyp/g 6-31g opt
|  2>
|  3> * xyzfile 0 1 aspirin.xyz **                         ****END OF INPUT****
 Total Charge           Charge          ....    0
 Multiplicity           Mult            ....    1
 Number of Electrons    NEL             ....   94
FINAL SINGLE POINT ENERGY      -648.486522811423
FINAL SINGLE POINT ENERGY      -648.494249185947
FINAL SINGLE POINT ENERGY      -648.495143874075
FINAL SINGLE POINT ENERGY      -648.495135240873
FINAL SINGLE POINT ENERGY      -648.495456638736
FINAL SINGLE POINT ENERGY      -648.495506224883
FINAL SINGLE POINT ENERGY      -648.495539344354
FINAL SINGLE POINT ENERGY      -648.495556140987
FINAL SINGLE POINT ENERGY      -648.495580941049
FINAL SINGLE POINT ENERGY      -648.495601920857
FINAL SINGLE POINT ENERGY      -648.495615362615
FINAL SINGLE POINT ENERGY      -648.495620043807
FINAL SINGLE POINT ENERGY      -648.495621319392
                    ***********************HURRAY********************

CARTESIAN COORDINATES (ANGSTROEM)
---------------------------------
  C      2.089398   -0.161129    0.334511
  C      0.779843    2.113300   -0.598555
  C      2.825604    0.980116    0.027527
  C      2.167571    2.122311   -0.446616
  C     -3.653489    0.936782   -0.014917
  C      0.688585   -0.197848    0.179030
  C      0.046232    0.967325   -0.286345
  O      0.636568   -2.460113    0.989782
  O     -1.922129    1.086743    1.704117
  O     -1.312919   -1.555917    0.249324
  C      0.039141   -1.482498    0.516877
  C     -2.261909    1.024640    0.528831
  O     -1.339711    1.037623   -0.532545
  H     -1.637574   -2.441596    0.521459
  H      2.575622   -1.057875    0.699712
  H      0.245454    2.983940   -0.958836
  H      3.902438    0.980794    0.155289
  H      2.729809    3.017068   -0.692164
  H     -3.790773   -0.045312   -0.479146
  H     -4.372494    1.067195    0.793867
  H     -3.813086    1.693131   -0.788680

 Multiplicity           Mult            ....    1
 Number of Electrons    NEL             ....   94
 Basis Dimension        Dim             ....  133

ORBITAL ENERGIES
----------------

  NO   OCC          E(Eh)            E(eV)
   0   2.0000     -19.201643      -522.5033
   1   2.0000     -19.199307      -522.4397
   2   2.0000     -19.151641      -521.1426
   3   2.0000     -19.150684      -521.1166
   4   2.0000     -10.341225      -281.3990
   5   2.0000     -10.337413      -281.2953
   6   2.0000     -10.276154      -279.6284
   7   2.0000     -10.225745      -278.2567
   8   2.0000     -10.213701      -277.9289
   9   2.0000     -10.209668      -277.8192
  10   2.0000     -10.207737      -277.7667
  11   2.0000     -10.205468      -277.7049
  12   2.0000     -10.198573      -277.5173
  13   2.0000      -1.123423       -30.5699
  14   2.0000      -1.114141       -30.3173
  15   2.0000      -1.040192       -28.3051
  16   2.0000      -1.030297       -28.0358
  17   2.0000      -0.882217       -24.0063
  18   2.0000      -0.792087       -21.5538
  19   2.0000      -0.786236       -21.3946
  20   2.0000      -0.751394       -20.4465
  21   2.0000      -0.683843       -18.6083
  22   2.0000      -0.647223       -17.6118
  23   2.0000      -0.613992       -16.7076
  24   2.0000      -0.591530       -16.0964
  25   2.0000      -0.532034       -14.4774
  26   2.0000      -0.510130       -13.8813
  27   2.0000      -0.499064       -13.5802
  28   2.0000      -0.486432       -13.2365
  29   2.0000      -0.473145       -12.8749
  30   2.0000      -0.471076       -12.8186
  31   2.0000      -0.460351       -12.5268
  32   2.0000      -0.453482       -12.3399
  33   2.0000      -0.450255       -12.2521
  34   2.0000      -0.418360       -11.3842
  35   2.0000      -0.409007       -11.1296
  36   2.0000      -0.403983       -10.9929
  37   2.0000      -0.393345       -10.7035
  38   2.0000      -0.383672       -10.4403
  39   2.0000      -0.369170       -10.0456
  40   2.0000      -0.363862        -9.9012
  41   2.0000      -0.325273        -8.8511
  42   2.0000      -0.314444        -8.5565
  43   2.0000      -0.288564        -7.8522
  44   2.0000      -0.284788        -7.7495
  45   2.0000      -0.273168        -7.4333
  46   2.0000      -0.260530        -7.0894
  47   0.0000      -0.064412        -1.7527
  48   0.0000      -0.020284        -0.5520
  49   0.0000      -0.004796        -0.1305
  50   0.0000       0.039128         1.0647
  51   0.0000       0.059182         1.6104

MULLIKEN ATOMIC CHARGES
-----------------------
   0 C :   -0.160615
   1 C :   -0.115191
   2 C :   -0.116593
   3 C :   -0.118584
   4 C :   -0.457562
   5 C :    0.118366
   6 C :    0.259113
   7 O :   -0.408464
   8 O :   -0.398392
   9 O :   -0.568444
  10 C :    0.435918
  11 C :    0.533841
  12 O :   -0.552474
  13 H :    0.391288
  14 H :    0.178999
  15 H :    0.147923
  16 H :    0.144738
  17 H :    0.143076
  18 H :    0.190029
  19 H :    0.174635
  20 H :    0.178391
Sum of atomic charges:   -0.0000000

LOEWDIN ATOMIC CHARGES
----------------------
   0 C :   -0.070293
   1 C :   -0.123620
   2 C :   -0.116513
   3 C :   -0.084806
   4 C :   -0.342516
   5 C :   -0.085541
   6 C :    0.145911
   7 O :   -0.292994
   8 O :   -0.264620
   9 O :   -0.332434
  10 C :    0.258175
  11 C :    0.277522
  12 O :   -0.235190
  13 H :    0.307898
  14 H :    0.144428
  15 H :    0.134438
  16 H :    0.126348
  17 H :    0.126052
  18 H :    0.148907
  19 H :    0.136515
  20 H :    0.142332

  Mayer bond orders larger than 0.1
B(  0-C ,  2-C ) :   1.4414 B(  0-C ,  5-C ) :   1.3678 B(  0-C , 14-H ) :   0.9100
B(  1-C ,  3-C ) :   1.4308 B(  1-C ,  6-C ) :   1.4193 B(  1-C , 15-H ) :   0.9215
B(  2-C ,  3-C ) :   1.4168 B(  2-C , 16-H ) :   0.9306 B(  3-C , 17-H ) :   0.9284
B(  4-C , 11-C ) :   0.9469 B(  4-C , 18-H ) :   0.9269 B(  4-C , 19-H ) :   0.9416
B(  4-C , 20-H ) :   0.9296 B(  5-C ,  6-C ) :   1.3118 B(  5-C , 10-C ) :   0.9401
B(  6-C , 12-O ) :   0.8246 B(  7-O , 10-C ) :   1.8610 B(  8-O , 11-C ) :   1.9218
B(  9-O , 10-C ) :   0.9670 B(  9-O , 13-H ) :   0.7735 B( 11-C , 12-O ) :   0.8644

FINAL SINGLE POINT ENERGY      -648.495621346649

DIPOLE MOMENT
-------------
                                X             Y             Z
Electronic contribution:      2.27188      -3.07854       1.47426
Nuclear contribution   :     -2.51221       3.61596      -2.37552
                        -----------------------------------------
Total Dipole Moment    :     -0.24033       0.53741      -0.90127
                        -----------------------------------------
Magnitude (a.u.)       :      1.07650
Magnitude (Debye)      :      2.73625

                             ****ORCA TERMINATED NORMALLY****
TOTAL RUN TIME: 0 days 0 hours 26 minutes 32 seconds 11 msec
