         Total SCF energy =   -644.661205185865
@ Step       Energy      Delta E   Gmax     Grms     Xrms     Xmax   Walltime
@ ---- ---------------- -------- -------- -------- -------- -------- --------
@    0    -644.66120519  0.0D+00  0.03673  0.00776  0.00000  0.00000     54.0
         Total SCF energy =   -644.673100267069
         Total SCF energy =   -644.673625460912
@    1    -644.67362546 -1.2D-02  0.02098  0.00283  0.09465  0.21978    137.8
         Total SCF energy =   -644.674909375684
         Total SCF energy =   -644.674937262607
@    2    -644.67493726 -1.3D-03  0.00798  0.00126  0.07127  0.15281    260.5
         Total SCF energy =   -644.675286391127
         Total SCF energy =   -644.675286391127
@    3    -644.67528639 -3.5D-04  0.00296  0.00061  0.03396  0.11035    312.2
         Total SCF energy =   -644.675439426081
         Total SCF energy =   -644.675439426081
@    4    -644.67543943 -1.5D-04  0.00337  0.00063  0.03219  0.09307    381.9
         Total SCF energy =   -644.675551771127
         Total SCF energy =   -644.675553250603
@    5    -644.67555325 -1.1D-04  0.00125  0.00031  0.01540  0.04937    482.1
         Total SCF energy =   -644.675614618962
         Total SCF energy =   -644.675625331334
@    6    -644.67562533 -7.2D-05  0.00082  0.00024  0.01839  0.04588    599.2
         Total SCF energy =   -644.675664607538
         Total SCF energy =   -644.675674275062
@    7    -644.67567428 -4.9D-05  0.00091  0.00018  0.01948  0.05425    729.0
         Total SCF energy =   -644.675684155400
         Total SCF energy =   -644.675684155400
@    8    -644.67568416 -9.9D-06  0.00019  0.00006  0.00636  0.02047    787.3
         Total SCF energy =   -644.675688180769
         Total SCF energy =   -644.675688900214
@    9    -644.67568890 -4.7D-06  0.00032  0.00009  0.00393  0.01155    862.7
         Total SCF energy =   -644.675691626467
         Total SCF energy =   -644.675692767937
@   10    -644.67569277 -3.9D-06  0.00038  0.00006  0.00469  0.01315    973.3
         Total SCF energy =   -644.675694496621
         Total SCF energy =   -644.675694513939
@   11    -644.67569451 -1.7D-06  0.00023  0.00004  0.00393  0.01295   1090.7
         Total SCF energy =   -644.675695536636
         Total SCF energy =   -644.675694834915
@   12    -644.67569483 -3.2D-07  0.00066  0.00011  0.00670  0.01982   1202.3
         Total SCF energy =   -644.675696457803
         Total SCF energy =   -644.675696457803
@   13    -644.67569646 -1.6D-06  0.00005  0.00002  0.00331  0.00889   1267.5
         Total SCF energy =   -644.675696854558
         Total SCF energy =   -644.675696931517
@   14    -644.67569693 -4.7D-07  0.00005  0.00001  0.00114  0.00318   1385.4
         Total SCF energy =   -644.675699028068
         Total SCF energy =   -644.675699801518
@   15    -644.67569980 -2.9D-06  0.00055  0.00010  0.00594  0.02393   1499.4
         Total SCF energy =   -644.675702028453
         Total SCF energy =   -644.675704414617
@   16    -644.67570441 -4.6D-06  0.00056  0.00008  0.01296  0.04472   1616.1
         Total SCF energy =   -644.675706106338
         Total SCF energy =   -644.675706100225
@   17    -644.67570610 -1.7D-06  0.00048  0.00006  0.00310  0.01000   1726.4
         Total SCF energy =   -644.675706504433

 Vector   46  Occ=2.000000D+00  E=-3.656861D-01

 Vector   47  Occ=2.000000D+00  E=-3.536133D-01

 Vector   48  Occ=0.000000D+00  E= 7.435136D-02

 Vector   49  Occ=0.000000D+00  E= 1.277647D-01

 Vector   50  Occ=0.000000D+00  E= 1.698365D-01

 Vector   51  Occ=0.000000D+00  E= 2.116992D-01

 Vector   52  Occ=0.000000D+00  E= 2.200986D-01

 Vector   53  Occ=0.000000D+00  E= 2.333349D-01

 Vector   54  Occ=0.000000D+00  E= 2.568389D-01

 Vector   55  Occ=0.000000D+00  E= 2.852996D-01

 Vector   56  Occ=0.000000D+00  E= 2.954824D-01

 Vector   57  Occ=0.000000D+00  E= 3.139881D-01

 Vector   58  Occ=0.000000D+00  E= 3.201943D-01

 Vector   59  Occ=0.000000D+00  E= 3.308390D-01

 Vector   60  Occ=0.000000D+00  E= 3.512437D-01

 Vector   61  Occ=0.000000D+00  E= 3.717980D-01

 Vector   62  Occ=0.000000D+00  E= 4.061795D-01

 Vector   63  Occ=0.000000D+00  E= 4.211833D-01

 Vector   64  Occ=0.000000D+00  E= 4.292473D-01

 Vector   65  Occ=0.000000D+00  E= 4.576171D-01

 Vector   66  Occ=0.000000D+00  E= 4.849969D-01

 Vector   67  Occ=0.000000D+00  E= 4.986178D-01

 Vector   68  Occ=0.000000D+00  E= 4.988549D-01

 Vector   69  Occ=0.000000D+00  E= 5.388629D-01

         Total SCF energy =   -644.675706504433
@   18    -644.67570650 -4.0D-07  0.00004  0.00001  0.00071  0.00306   1776.7
         Total SCF energy =   -644.675706607874

 Vector   14  Occ=2.000000D+00  E=-1.498266D+00

 Vector   15  Occ=2.000000D+00  E=-1.487583D+00

 Vector   16  Occ=2.000000D+00  E=-1.391652D+00

 Vector   17  Occ=2.000000D+00  E=-1.382663D+00

 Vector   18  Occ=2.000000D+00  E=-1.191590D+00

 Vector   19  Occ=2.000000D+00  E=-1.073272D+00

 Vector   20  Occ=2.000000D+00  E=-1.064641D+00

 Vector   21  Occ=2.000000D+00  E=-1.022210D+00

 Vector   22  Occ=2.000000D+00  E=-9.258299D-01

 Vector   23  Occ=2.000000D+00  E=-8.774362D-01

 Vector   24  Occ=2.000000D+00  E=-8.373258D-01

 Vector   25  Occ=2.000000D+00  E=-8.044816D-01

 Vector   26  Occ=2.000000D+00  E=-7.343348D-01

 Vector   27  Occ=2.000000D+00  E=-7.187087D-01

 Vector   28  Occ=2.000000D+00  E=-6.995101D-01

 Vector   29  Occ=2.000000D+00  E=-6.938036D-01

 Vector   30  Occ=2.000000D+00  E=-6.749433D-01

 Vector   31  Occ=2.000000D+00  E=-6.682772D-01

 Vector   32  Occ=2.000000D+00  E=-6.478800D-01

 Vector   33  Occ=2.000000D+00  E=-6.360833D-01

 Vector   34  Occ=2.000000D+00  E=-6.258409D-01

 Vector   35  Occ=2.000000D+00  E=-5.913524D-01

 Vector   36  Occ=2.000000D+00  E=-5.854602D-01

 Vector   37  Occ=2.000000D+00  E=-5.767586D-01

 Vector   38  Occ=2.000000D+00  E=-5.619613D-01

 Vector   39  Occ=2.000000D+00  E=-5.386600D-01

 Vector   40  Occ=2.000000D+00  E=-5.223921D-01

 Vector   41  Occ=2.000000D+00  E=-5.195636D-01

 Vector   42  Occ=2.000000D+00  E=-4.873081D-01

 Vector   43  Occ=2.000000D+00  E=-4.716431D-01

 Vector   44  Occ=2.000000D+00  E=-4.640503D-01

 Vector   45  Occ=2.000000D+00  E=-4.544308D-01

 Vector   46  Occ=2.000000D+00  E=-3.656889D-01

 Vector   47  Occ=2.000000D+00  E=-3.536105D-01

 Vector   48  Occ=0.000000D+00  E= 7.435037D-02

 Vector   49  Occ=0.000000D+00  E= 1.277622D-01

 Vector   50  Occ=0.000000D+00  E= 1.698412D-01

 Vector   51  Occ=0.000000D+00  E= 2.116784D-01

 Vector   52  Occ=0.000000D+00  E= 2.200983D-01

 Vector   53  Occ=0.000000D+00  E= 2.333322D-01

 Vector   54  Occ=0.000000D+00  E= 2.568646D-01

 Vector   55  Occ=0.000000D+00  E= 2.852985D-01

 Vector   56  Occ=0.000000D+00  E= 2.954869D-01

 Vector   57  Occ=0.000000D+00  E= 3.139867D-01

 Vector   58  Occ=0.000000D+00  E= 3.201959D-01

 Vector   59  Occ=0.000000D+00  E= 3.308522D-01

 Vector   60  Occ=0.000000D+00  E= 3.512452D-01

 Vector   61  Occ=0.000000D+00  E= 3.717809D-01

 Vector   62  Occ=0.000000D+00  E= 4.061982D-01

 Vector   63  Occ=0.000000D+00  E= 4.211803D-01

 Vector   64  Occ=0.000000D+00  E= 4.292363D-01

 Vector   65  Occ=0.000000D+00  E= 4.576111D-01

 Vector   66  Occ=0.000000D+00  E= 4.849769D-01

 Vector   67  Occ=0.000000D+00  E= 4.986149D-01

 Vector   68  Occ=0.000000D+00  E= 4.988647D-01

 Vector   69  Occ=0.000000D+00  E= 5.388707D-01

       Multipole analysis of the density wrt the origin
       ------------------------------------------------

     L   x y z        total         open         nuclear
     -   - - -        -----         ----         -------
     0   0 0 0     -0.000000      0.000000     94.000000

     1   1 0 0      0.778991      0.000000      1.914120
     1   0 1 0      0.244017      0.000000      1.257301
     1   0 0 1     -0.907289      0.000000      6.635218

     2   2 0 0    -53.228996      0.000000    735.540832
     2   1 1 0     -7.290073      0.000000    -50.318307
     2   1 0 1      0.056522      0.000000    -31.166915
     2   0 2 0    -44.773571      0.000000   1259.550885
     2   0 1 1     -3.501698      0.000000     13.906247

         Total SCF energy =   -644.675706607874
@   19    -644.67570661 -1.0D-07  0.00005  0.00001  0.00058  0.00175   1806.6
@   19    -644.67570661 -1.0D-07  0.00005  0.00001  0.00058  0.00175   1806.6

 Output coordinates in angstroms (scale by  1.889725989 to convert to a.u.)

  No.       Tag          Charge          X              Y              Z
 ---- ---------------- ---------- -------------- -------------- --------------
    1 C                    6.0000    -0.32806871    -2.30196327     0.18316629
    2 C                    6.0000     1.97046217    -0.86425851    -0.34451475
    3 C                    6.0000     0.88978662    -2.95248975     0.14351503
    4 C                    6.0000     2.04322621    -2.22875897    -0.12447645
    5 C                    6.0000     0.43338556     3.44767189    -0.29922067
    6 C                    6.0000    -0.42437895    -0.92753111    -0.04145547
    7 C                    6.0000     0.74807913    -0.22001712    -0.29978257
    8 O                    8.0000    -2.77946146    -1.00914068     0.26230172
    9 O                    8.0000     0.47044232     1.86761393     1.52352165
   10 O                    8.0000    -1.88524266     0.96536770    -0.23933387
   11 C                    6.0000    -1.78393695    -0.35640277     0.01523023
   12 C                    6.0000     0.53721653     2.11130399     0.34519204
   13 O                    8.0000     0.75832498     1.13806391    -0.59279613
   14 H                    1.0000    -2.78478404     1.27826491    -0.17228387
   15 H                    1.0000    -1.22962803    -2.84250734     0.38604081
   16 H                    1.0000     2.84612220    -0.28544041    -0.55474520
   17 H                    1.0000     0.93937961    -4.00857545     0.31803862
   18 H                    1.0000     2.99483133    -2.72178989    -0.16018716
   19 H                    1.0000    -0.40774911     3.44779189    -0.97880919
   20 H                    1.0000     0.30247626     4.20660649     0.45486511
   21 H                    1.0000     1.32512506     3.65041945    -0.87718194

 Total times  cpu:      788.8s     wall:     1806.7s
