         Total DFT energy =     -648.486590984931
@ Step       Energy      Delta E   Gmax     Grms     Xrms     Xmax   Walltime
@ ---- ---------------- -------- -------- -------- -------- -------- --------
@    0    -648.48659098  0.0D+00  0.03735  0.00694  0.00000  0.00000    113.0
         Total DFT energy =     -648.493648674729
         Total DFT energy =     -648.494382157295
@    1    -648.49438216 -7.8D-03  0.00742  0.00134  0.09872  0.22765    260.7
         Total DFT energy =     -648.495006925485
         Total DFT energy =     -648.495054060057
@    2    -648.49505406 -6.7D-04  0.00408  0.00068  0.05613  0.13203    389.9
         Total DFT energy =     -648.495268058402
         Total DFT energy =     -648.495313619303
@    3    -648.49531362 -2.6D-04  0.00250  0.00051  0.03864  0.12690    512.2
         Total DFT energy =     -648.495418816610
         Total DFT energy =   -648.495418816610
@    4    -648.49541882 -1.1D-04  0.00207  0.00040  0.02964  0.08586    588.9
         Total DFT energy =     -648.495490953248
         Total DFT energy =     -648.495495959219
@    5    -648.49549596 -7.7D-05  0.00162  0.00029  0.01273  0.03783    711.5
         Total DFT energy =     -648.495539315605
         Total DFT energy =     -648.495548206090
@    6    -648.49554821 -5.2D-05  0.00079  0.00023  0.01468  0.04193    834.1
         Total DFT energy =     -648.495573188242
         Total DFT energy =     -648.495578954235
@    7    -648.49557895 -3.1D-05  0.00037  0.00012  0.00951  0.02551    944.1
         Total DFT energy =     -648.495599165596
         Total DFT energy =     -648.495601281527
@    8    -648.49560128 -2.2D-05  0.00046  0.00011  0.01437  0.04042   1061.1
         Total DFT energy =     -648.495609597410
         Total DFT energy =     -648.495613982572
@    9    -648.49561398 -1.3D-05  0.00060  0.00012  0.00994  0.03920   1171.2
         Total DFT energy =     -648.495621063395
         Total DFT energy =     -648.495623875179
@   10    -648.49562388 -9.9D-06  0.00063  0.00012  0.00851  0.04493   1281.4
         Total DFT energy =     -648.495630209021
         Total DFT energy =     -648.495634747928
@   11    -648.49563475 -1.1D-05  0.00053  0.00010  0.01408  0.04767   1397.8
         Total DFT energy =     -648.495639437179
         Total DFT energy =   -648.495639437179
@   12    -648.49563944 -4.7D-06  0.00019  0.00006  0.00282  0.01515   1468.6
         Total DFT energy =     -648.495647746988
         Total DFT energy =     -648.495648559497
@   13    -648.49564856 -9.1D-06  0.00043  0.00009  0.01135  0.05478   1585.2
         Total DFT energy =     -648.495653551015
         Total DFT energy =   -648.495653551015
@   14    -648.49565355 -5.0D-06  0.00039  0.00008  0.00274  0.01172   1649.6
         Total DFT energy =     -648.495677415138
         Total DFT energy =     -648.495678061833
@   15    -648.49567806 -2.5D-05  0.00045  0.00012  0.02472  0.10577   1773.0
         Total DFT energy =     -648.495681659434
         Total DFT energy =   -648.495681659434
@   16    -648.49568166 -3.6D-06  0.00020  0.00005  0.00134  0.00295   1843.8
         Total DFT energy =     -648.495683422529
         Total DFT energy =   -648.495683422529
@   17    -648.49568342 -1.8D-06  0.00005  0.00002  0.00255  0.00677   1921.4
         Total DFT energy =     -648.495683954871
         Total DFT energy =   -648.495683954871
@   18    -648.49568395 -5.3D-07  0.00009  0.00002  0.00133  0.00434   1985.8
         Total DFT energy =     -648.495684918559
         Total DFT energy =   -648.495684918559
@   19    -648.49568492 -9.6D-07  0.00012  0.00003  0.00208  0.00751   2050.5
         Total DFT energy =     -648.495685837408
         Total DFT energy =   -648.495685837408
@   20    -648.49568584 -9.2D-07  0.00012  0.00003  0.00263  0.00882   2114.6
         Total DFT energy =     -648.495687393516
         Total DFT energy =   -648.495687393516
@   21    -648.49568739 -1.6D-06  0.00009  0.00003  0.00408  0.01575   2185.7
         Total DFT energy =     -648.495689118010
         Total DFT energy =   -648.495689118010
@   22    -648.49568912 -1.7D-06  0.00012  0.00003  0.00646  0.02484   2256.8
         Total DFT energy =     -648.495691262532
         Total DFT energy =   -648.495691262532
@   23    -648.49569126 -2.1D-06  0.00021  0.00004  0.00692  0.02750   2321.0
         Total DFT energy =     -648.495693188954
         Total DFT energy =   -648.495693188954
@   24    -648.49569319 -1.9D-06  0.00014  0.00003  0.00695  0.02880   2398.8
         Total DFT energy =     -648.495693999112

 Vector   57  Occ=0.000000D+00  E= 1.509836D-01

 Vector   58  Occ=0.000000D+00  E= 1.582087D-01

 Vector   59  Occ=0.000000D+00  E= 1.673636D-01

 Vector   60  Occ=0.000000D+00  E= 1.728626D-01

 Vector   61  Occ=0.000000D+00  E= 1.836640D-01

 Vector   62  Occ=0.000000D+00  E= 2.147686D-01

 Vector   63  Occ=0.000000D+00  E= 2.279549D-01

 Vector   64  Occ=0.000000D+00  E= 2.407593D-01

 Vector   65  Occ=0.000000D+00  E= 2.690262D-01

 Vector   66  Occ=0.000000D+00  E= 2.806421D-01

 Vector   67  Occ=0.000000D+00  E= 3.121446D-01

 Vector   68  Occ=0.000000D+00  E= 3.158149D-01

 Vector   69  Occ=0.000000D+00  E= 3.374328D-01

 Vector   70  Occ=0.000000D+00  E= 3.596105D-01

 Vector   71  Occ=0.000000D+00  E= 3.943945D-01

 Vector   72  Occ=0.000000D+00  E= 4.920920D-01

 Vector   73  Occ=0.000000D+00  E= 4.988794D-01

 Vector   74  Occ=0.000000D+00  E= 5.118686D-01

         Total DFT energy =   -648.495693999112
@   25    -648.49569400 -8.1D-07  0.00011  0.00002  0.00384  0.01254   2463.2
         Total DFT energy =     -648.495694155010

                       DFT Final Molecular Orbital Analysis
                       ------------------------------------

 Vector   13  Occ=2.000000D+00  E=-1.019861D+01

 Vector   14  Occ=2.000000D+00  E=-1.123344D+00

 Vector   15  Occ=2.000000D+00  E=-1.113990D+00

 Vector   16  Occ=2.000000D+00  E=-1.040066D+00

 Vector   17  Occ=2.000000D+00  E=-1.030303D+00

 Vector   18  Occ=2.000000D+00  E=-8.821693D-01

 Vector   19  Occ=2.000000D+00  E=-7.920263D-01

 Vector   20  Occ=2.000000D+00  E=-7.861349D-01

 Vector   21  Occ=2.000000D+00  E=-7.513201D-01

 Vector   22  Occ=2.000000D+00  E=-6.837700D-01

 Vector   23  Occ=2.000000D+00  E=-6.471678D-01

 Vector   24  Occ=2.000000D+00  E=-6.138430D-01

 Vector   25  Occ=2.000000D+00  E=-5.915044D-01

 Vector   26  Occ=2.000000D+00  E=-5.320093D-01

 Vector   27  Occ=2.000000D+00  E=-5.100743D-01

 Vector   28  Occ=2.000000D+00  E=-4.988875D-01

 Vector   29  Occ=2.000000D+00  E=-4.863521D-01

 Vector   30  Occ=2.000000D+00  E=-4.731579D-01

 Vector   31  Occ=2.000000D+00  E=-4.710822D-01

 Vector   32  Occ=2.000000D+00  E=-4.602185D-01

 Vector   33  Occ=2.000000D+00  E=-4.535178D-01

 Vector   34  Occ=2.000000D+00  E=-4.501939D-01

 Vector   35  Occ=2.000000D+00  E=-4.182652D-01

 Vector   36  Occ=2.000000D+00  E=-4.089656D-01

 Vector   37  Occ=2.000000D+00  E=-4.039233D-01

 Vector   38  Occ=2.000000D+00  E=-3.933447D-01

 Vector   39  Occ=2.000000D+00  E=-3.834721D-01

 Vector   40  Occ=2.000000D+00  E=-3.691652D-01

 Vector   41  Occ=2.000000D+00  E=-3.638604D-01

 Vector   42  Occ=2.000000D+00  E=-3.252125D-01

 Vector   43  Occ=2.000000D+00  E=-3.140895D-01

 Vector   44  Occ=2.000000D+00  E=-2.885365D-01

 Vector   45  Occ=2.000000D+00  E=-2.846746D-01

 Vector   46  Occ=2.000000D+00  E=-2.732574D-01

 Vector   47  Occ=2.000000D+00  E=-2.605694D-01

 Vector   48  Occ=0.000000D+00  E=-6.439231D-02

 Vector   49  Occ=0.000000D+00  E=-2.009336D-02

 Vector   50  Occ=0.000000D+00  E=-4.950665D-03

 Vector   51  Occ=0.000000D+00  E= 3.922481D-02

 Vector   52  Occ=0.000000D+00  E= 5.900344D-02

 Vector   53  Occ=0.000000D+00  E= 8.468644D-02

 Vector   54  Occ=0.000000D+00  E= 1.114541D-01

 Vector   55  Occ=0.000000D+00  E= 1.284223D-01

 Vector   56  Occ=0.000000D+00  E= 1.409543D-01

 Vector   57  Occ=0.000000D+00  E= 1.509844D-01

 Vector   58  Occ=0.000000D+00  E= 1.582089D-01

 Vector   59  Occ=0.000000D+00  E= 1.673577D-01

 Vector   60  Occ=0.000000D+00  E= 1.728690D-01

 Vector   61  Occ=0.000000D+00  E= 1.836592D-01

 Vector   62  Occ=0.000000D+00  E= 2.147659D-01

 Vector   63  Occ=0.000000D+00  E= 2.279539D-01

 Vector   64  Occ=0.000000D+00  E= 2.407404D-01

 Vector   65  Occ=0.000000D+00  E= 2.690341D-01

 Vector   66  Occ=0.000000D+00  E= 2.806494D-01

 Vector   67  Occ=0.000000D+00  E= 3.121283D-01

 Vector   68  Occ=0.000000D+00  E= 3.157938D-01

 Vector   69  Occ=0.000000D+00  E= 3.374474D-01

 Vector   70  Occ=0.000000D+00  E= 3.595784D-01

 Vector   71  Occ=0.000000D+00  E= 3.943700D-01

 Vector   72  Occ=0.000000D+00  E= 4.921366D-01

 Vector   73  Occ=0.000000D+00  E= 4.988706D-01

 Vector   74  Occ=0.000000D+00  E= 5.118458D-01

     Multipole analysis of the density
     ---------------------------------

     L   x y z        total         alpha         beta         nuclear
     -   - - -        -----         -----         ----         -------
     0   0 0 0     -0.000000    -47.000000    -47.000000     94.000000

     1   1 0 0      0.673701     -0.376037     -0.376037      1.425775
     1   0 1 0      0.239523     -0.493830     -0.493830      1.227183
     1   0 0 1     -0.795900     -3.552521     -3.552521      6.309143

     2   2 0 0    -51.894025   -399.668201   -399.668201    747.442378
     2   1 1 0     -6.465596     24.764362     24.764362    -55.994321
     2   1 0 1      0.510298     18.445852     18.445852    -36.381406
     2   0 2 0    -44.683356   -659.547136   -659.547136   1274.410915
     2   0 1 1     -2.815139     -6.086936     -6.086936      9.358734

         Total DFT energy =   -648.495694155010
@   26    -648.49569416 -1.6D-07  0.00003  0.00001  0.00064  0.00170   2527.6
@   26    -648.49569416 -1.6D-07  0.00003  0.00001  0.00064  0.00170   2527.6

 Output coordinates in angstroms (scale by  1.889725989 to convert to a.u.)

  No.       Tag          Charge          X              Y              Z
 ---- ---------------- ---------- -------------- -------------- --------------
    1 C                    6.0000    -0.32747783    -2.30960018     0.20404873
    2 C                    6.0000     1.99180027    -0.87604421    -0.36565823
    3 C                    6.0000     0.89712278    -2.97057173     0.15885513
    4 C                    6.0000     2.06282071    -2.25055627    -0.13244408
    5 C                    6.0000     0.44350479     3.47791069    -0.27670058
    6 C                    6.0000    -0.42574643    -0.92413895    -0.03838254
    7 C                    6.0000     0.76183078    -0.21765818    -0.31661416
    8 O                    8.0000    -2.80233273    -1.00915619     0.31756719
    9 O                    8.0000     0.40425545     1.84628238     1.54398782
   10 O                    8.0000    -1.89719897     0.97522158    -0.32261291
   11 C                    6.0000    -1.79133504    -0.35901076     0.01487145
   12 C                    6.0000     0.52565848     2.12444333     0.35723991
   13 O                    8.0000     0.78498866     1.15640933    -0.62958603
   14 H                    1.0000    -2.83835901     1.24384975    -0.24404863
   15 H                    1.0000    -1.24359192    -2.84481595     0.42343210
   16 H                    1.0000     2.87769383    -0.29455748    -0.59018758
   17 H                    1.0000     0.94413370    -4.03740941     0.34620046
   18 H                    1.0000     3.02278751    -2.75418962    -0.17240256
   19 H                    1.0000    -0.45272984     3.52092555    -0.90431475
   20 H                    1.0000     0.38992326     4.24375597     0.49714205
   21 H                    1.0000     1.30785965     3.65313923    -0.92330855

 Total times  cpu:     2496.2s     wall:     2527.6s
