         Total DFT energy =     -648.486590959790
@ Step       Energy      Delta E   Gmax     Grms     Xrms     Xmax   Walltime
@ ---- ---------------- -------- -------- -------- -------- -------- --------
@    0    -648.48659096  0.0D+00  0.03735  0.00694  0.00000  0.00000     67.7
         Total DFT energy =     -648.495458367214
         Total DFT energy =   -648.495458367214
@    1    -648.49545837 -8.9D-03  0.00273  0.00058  0.16881  0.40304    132.0
         Total DFT energy =     -648.495630389856
         Total DFT energy =     -648.495630351543
@    2    -648.49563035 -1.7D-04  0.00067  0.00014  0.04935  0.23477    207.5
         Total DFT energy =     -648.495636448474
         Total DFT energy =   -648.495636448474
@    3    -648.49563645 -6.1D-06  0.00028  0.00007  0.00646  0.01869    250.5
         Total DFT energy =     -648.495639755064
         Total DFT energy =   -648.495639755064
@    4    -648.49563976 -3.3D-06  0.00028  0.00006  0.00270  0.01302    293.5
         Total DFT energy =     -648.495648780509
         Total DFT energy =     -648.495650648293
@    5    -648.49565065 -1.1D-05  0.00091  0.00016  0.01701  0.08161    365.0
         Total DFT energy =     -648.495657245551
         Total DFT energy =     -648.495666693009
@    6    -648.49566669 -1.6D-05  0.00066  0.00012  0.01322  0.05155    436.5
         Total DFT energy =     -648.495673414835
         Total DFT energy =     -648.495677449144
@    7    -648.49567745 -1.1D-05  0.00116  0.00017  0.01443  0.05835    507.9
         Total DFT energy =     -648.495682742935
         Total DFT energy =     -648.495683082759
@    8    -648.49568308 -5.6D-06  0.00042  0.00006  0.00584  0.01613    575.1
         Total DFT energy =     -648.495683846487
         Total DFT energy =   -648.495683846487
@    9    -648.49568385 -7.6D-07  0.00006  0.00002  0.00140  0.00440    614.0
         Total DFT energy =     -648.495684336748
         Total DFT energy =   -648.495684336748
@   10    -648.49568434 -4.9D-07  0.00010  0.00002  0.00099  0.00330    652.8
         Total DFT energy =     -648.495685657476
         Total DFT energy =   -648.495685657476
@   11    -648.49568566 -1.3D-06  0.00022  0.00004  0.00315  0.00995    691.8
         Total DFT energy =     -648.495686909349
         Total DFT energy =   -648.495686909349
@   12    -648.49568691 -1.3D-06  0.00016  0.00004  0.00312  0.01232    735.0
         Total DFT energy =     -648.495688573760
         Total DFT energy =   -648.495688573760
@   13    -648.49568857 -1.7D-06  0.00008  0.00003  0.00575  0.02155    774.0
         Total DFT energy =     -648.495690416346
         Total DFT energy =   -648.495690416346
@   14    -648.49569042 -1.8D-06  0.00006  0.00002  0.00514  0.02125    821.5
         Total DFT energy =     -648.495692456357
         Total DFT energy =   -648.495692456357
@   15    -648.49569246 -2.0D-06  0.00017  0.00004  0.01083  0.04079    864.7
         Total DFT energy =     -648.495693526647
         Total DFT energy =   -648.495693526647
@   16    -648.49569353 -1.1D-06  0.00012  0.00003  0.00230  0.00784    903.6
         Total DFT energy =     -648.495694358148
         Total DFT energy =   -648.495694358148
@   17    -648.49569436 -8.3D-07  0.00004  0.00001  0.00205  0.00656    947.1
         Total DFT energy =     -648.495694420754

 Vector   57  Occ=0.000000D+00  E= 1.509826D-01

 Vector   58  Occ=0.000000D+00  E= 1.582164D-01

 Vector   59  Occ=0.000000D+00  E= 1.673489D-01

 Vector   60  Occ=0.000000D+00  E= 1.728710D-01

 Vector   61  Occ=0.000000D+00  E= 1.836621D-01

 Vector   62  Occ=0.000000D+00  E= 2.147627D-01

 Vector   63  Occ=0.000000D+00  E= 2.279483D-01

 Vector   64  Occ=0.000000D+00  E= 2.407420D-01

 Vector   65  Occ=0.000000D+00  E= 2.690352D-01

 Vector   66  Occ=0.000000D+00  E= 2.806474D-01

 Vector   67  Occ=0.000000D+00  E= 3.121321D-01

 Vector   68  Occ=0.000000D+00  E= 3.157970D-01

 Vector   69  Occ=0.000000D+00  E= 3.374452D-01

 Vector   70  Occ=0.000000D+00  E= 3.595775D-01

 Vector   71  Occ=0.000000D+00  E= 3.943477D-01

 Vector   72  Occ=0.000000D+00  E= 4.921360D-01

 Vector   73  Occ=0.000000D+00  E= 4.988752D-01

 Vector   74  Occ=0.000000D+00  E= 5.118396D-01

         Total DFT energy =   -648.495694420754
@   18    -648.49569442 -6.3D-08  0.00002  0.00001  0.00077  0.00225    986.3
         Total DFT energy =     -648.495694502089

                       DFT Final Molecular Orbital Analysis
                       ------------------------------------

 Vector   13  Occ=2.000000D+00  E=-1.019859D+01

 Vector   14  Occ=2.000000D+00  E=-1.123353D+00

 Vector   15  Occ=2.000000D+00  E=-1.114004D+00

 Vector   16  Occ=2.000000D+00  E=-1.040065D+00

 Vector   17  Occ=2.000000D+00  E=-1.030282D+00

 Vector   18  Occ=2.000000D+00  E=-8.821861D-01

 Vector   19  Occ=2.000000D+00  E=-7.920377D-01

 Vector   20  Occ=2.000000D+00  E=-7.861373D-01

 Vector   21  Occ=2.000000D+00  E=-7.513232D-01

 Vector   22  Occ=2.000000D+00  E=-6.837726D-01

 Vector   23  Occ=2.000000D+00  E=-6.471883D-01

 Vector   24  Occ=2.000000D+00  E=-6.138373D-01

 Vector   25  Occ=2.000000D+00  E=-5.915196D-01

 Vector   26  Occ=2.000000D+00  E=-5.320250D-01

 Vector   27  Occ=2.000000D+00  E=-5.100831D-01

 Vector   28  Occ=2.000000D+00  E=-4.988820D-01

 Vector   29  Occ=2.000000D+00  E=-4.863587D-01

 Vector   30  Occ=2.000000D+00  E=-4.731635D-01

 Vector   31  Occ=2.000000D+00  E=-4.710840D-01

 Vector   32  Occ=2.000000D+00  E=-4.602063D-01

 Vector   33  Occ=2.000000D+00  E=-4.535182D-01

 Vector   34  Occ=2.000000D+00  E=-4.502008D-01

 Vector   35  Occ=2.000000D+00  E=-4.182661D-01

 Vector   36  Occ=2.000000D+00  E=-4.089655D-01

 Vector   37  Occ=2.000000D+00  E=-4.039160D-01

 Vector   38  Occ=2.000000D+00  E=-3.933580D-01

 Vector   39  Occ=2.000000D+00  E=-3.834913D-01

 Vector   40  Occ=2.000000D+00  E=-3.691571D-01

 Vector   41  Occ=2.000000D+00  E=-3.638743D-01

 Vector   42  Occ=2.000000D+00  E=-3.252054D-01

 Vector   43  Occ=2.000000D+00  E=-3.140757D-01

 Vector   44  Occ=2.000000D+00  E=-2.885070D-01

 Vector   45  Occ=2.000000D+00  E=-2.846591D-01

 Vector   46  Occ=2.000000D+00  E=-2.732670D-01

 Vector   47  Occ=2.000000D+00  E=-2.605941D-01

 Vector   48  Occ=0.000000D+00  E=-6.439398D-02

 Vector   49  Occ=0.000000D+00  E=-2.009523D-02

 Vector   50  Occ=0.000000D+00  E=-4.954744D-03

 Vector   51  Occ=0.000000D+00  E= 3.922494D-02

 Vector   52  Occ=0.000000D+00  E= 5.899503D-02

 Vector   53  Occ=0.000000D+00  E= 8.467858D-02

 Vector   54  Occ=0.000000D+00  E= 1.114633D-01

 Vector   55  Occ=0.000000D+00  E= 1.284249D-01

 Vector   56  Occ=0.000000D+00  E= 1.409350D-01

 Vector   57  Occ=0.000000D+00  E= 1.509890D-01

 Vector   58  Occ=0.000000D+00  E= 1.582143D-01

 Vector   59  Occ=0.000000D+00  E= 1.673496D-01

 Vector   60  Occ=0.000000D+00  E= 1.728846D-01

 Vector   61  Occ=0.000000D+00  E= 1.836599D-01

 Vector   62  Occ=0.000000D+00  E= 2.147715D-01

 Vector   63  Occ=0.000000D+00  E= 2.279522D-01

 Vector   64  Occ=0.000000D+00  E= 2.407478D-01

 Vector   65  Occ=0.000000D+00  E= 2.690460D-01

 Vector   66  Occ=0.000000D+00  E= 2.806521D-01

 Vector   67  Occ=0.000000D+00  E= 3.121255D-01

 Vector   68  Occ=0.000000D+00  E= 3.158032D-01

 Vector   69  Occ=0.000000D+00  E= 3.374577D-01

 Vector   70  Occ=0.000000D+00  E= 3.595908D-01

 Vector   71  Occ=0.000000D+00  E= 3.943352D-01

 Vector   72  Occ=0.000000D+00  E= 4.921323D-01

 Vector   73  Occ=0.000000D+00  E= 4.988641D-01

 Vector   74  Occ=0.000000D+00  E= 5.118348D-01

     Multipole analysis of the density
     ---------------------------------

     L   x y z        total         alpha         beta         nuclear
     -   - - -        -----         -----         ----         -------
     0   0 0 0      0.000000    -47.000000    -47.000000     94.000000

     1   1 0 0      0.670864     -0.400644     -0.400644      1.472153
     1   0 1 0      0.239044     -0.492401     -0.492401      1.223846
     1   0 0 1     -0.795692     -3.581392     -3.581392      6.367092

     2   2 0 0    -51.888711   -399.622286   -399.622286    747.355861
     2   1 1 0     -6.472498     24.734047     24.734047    -55.940592
     2   1 0 1      0.485766     19.040156     19.040156    -37.594546
     2   0 2 0    -44.690505   -659.559528   -659.559528   1274.428551
     2   0 1 1     -2.808658     -5.901420     -5.901420      8.994183

         Total DFT energy =   -648.495694502089
@   19    -648.49569450 -8.1D-08  0.00002  0.00001  0.00045  0.00149   1021.3
@   19    -648.49569450 -8.1D-08  0.00002  0.00001  0.00045  0.00149   1021.3

 Output coordinates in angstroms (scale by  1.889725989 to convert to a.u.)

  No.       Tag          Charge          X              Y              Z
 ---- ---------------- ---------- -------------- -------------- --------------
    1 C                    6.0000    -0.32668412    -2.30958274     0.20578344
    2 C                    6.0000     1.99117723    -0.87587169    -0.36896418
    3 C                    6.0000     0.89798028    -2.97039355     0.15874512
    4 C                    6.0000     2.06293474    -2.25029056    -0.13506812
    5 C                    6.0000     0.44259103     3.47785380    -0.27878035
    6 C                    6.0000    -0.42565266    -0.92431462    -0.03693873
    7 C                    6.0000     0.76122060    -0.21770468    -0.31791012
    8 O                    8.0000    -2.80151025    -1.00984596     0.32321431
    9 O                    8.0000     0.40853566     1.84694726     1.54261352
   10 O                    8.0000    -1.89797311     0.97503689    -0.31757941
   11 C                    6.0000    -1.79119443    -0.35935760     0.01890390
   12 C                    6.0000     0.52690678     2.12464084     0.35545880
   13 O                    8.0000     0.78337975     1.15621987    -0.63166449
   14 H                    1.0000    -2.83898719     1.24345231    -0.23643719
   15 H                    1.0000    -1.24224590    -2.84489967     0.42728420
   16 H                    1.0000     2.87668648    -0.29432042    -0.59480290
   17 H                    1.0000     0.94539940    -4.03706759     0.34689972
   18 H                    1.0000     3.02298814    -2.75360575    -0.17696935
   19 H                    1.0000    -0.45590056     3.52041197    -0.90320392
   20 H                    1.0000     0.39136624     4.24392112     0.49499937
   21 H                    1.0000     1.30458997     3.65299964    -0.92849937

 Total times  cpu:     1011.7s     wall:     1021.3s
