============================== echo of input deck ==============================
echo

start b3lyp_scf

geometry units ang
C          2.05639       -0.16543        0.39727
C          0.68890        2.02854       -0.64816
C          2.74071        1.02327        0.12533
C          2.05734        2.11782       -0.40016
C         -3.59396        1.03209        0.04589
C          0.67738       -0.27507        0.15097
C          0.00274        0.84234       -0.35887
O          0.63293       -2.54526        0.93360
O         -1.76452        1.43252        1.56571
O         -1.24894       -1.68411        0.12975
C          0.05278       -1.58881        0.44958
C         -2.15199        1.12841        0.44513
O         -1.36167        0.82832       -0.65825
H         -1.47652       -2.60111        0.39232
H          2.60948       -1.01173        0.80284
H          0.15708        2.88266       -1.05823
H          3.80777        1.09126        0.32364
H          2.59044        3.04081       -0.61405
H         -3.81640        0.02049       -0.30287
H         -4.22480        1.24591        0.91440
H         -3.81296        1.76576       -0.73332
end

basis cartesian print segment
 H library 6-31G
 C library 6-31G
 O library 6-31G
end

dft
  xc b3lyp
end

driver
  maxiter 40
  inhess   1
end

task dft optimize
================================================================================

         Total DFT energy =     -648.486590959794
@ Step       Energy      Delta E   Gmax     Grms     Xrms     Xmax   Walltime
@ ---- ---------------- -------- -------- -------- -------- -------- --------
@    0    -648.48659096  0.0D+00  0.03735  0.00694  0.00000  0.00000     73.9
         Total DFT energy =     -648.493648475560
         Total DFT energy =     -648.494382161590
@    1    -648.49438216 -7.8D-03  0.00742  0.00134  0.09872  0.22764    172.7
         Total DFT energy =     -648.495006943972
         Total DFT energy =     -648.495054088259
@    2    -648.49505409 -6.7D-04  0.00408  0.00068  0.05613  0.13204    258.8
         Total DFT energy =     -648.495268090426
         Total DFT energy =     -648.495313704775
@    3    -648.49531370 -2.6D-04  0.00250  0.00051  0.03865  0.12693    339.5
         Total DFT energy =     -648.495418856209
         Total DFT energy =   -648.495418856209
@    4    -648.49541886 -1.1D-04  0.00207  0.00040  0.02962  0.08580    390.2
         Total DFT energy =     -648.495490983236
         Total DFT energy =     -648.495495966746
@    5    -648.49549597 -7.7D-05  0.00162  0.00029  0.01273  0.03785    471.4
         Total DFT energy =     -648.495539320904
         Total DFT energy =     -648.495548204062
@    6    -648.49554820 -5.2D-05  0.00079  0.00023  0.01468  0.04194    549.3
         Total DFT energy =     -648.495573189889
         Total DFT energy =     -648.495578954473
@    7    -648.49557895 -3.1D-05  0.00036  0.00012  0.00950  0.02547    618.9
         Total DFT energy =     -648.495599163328
         Total DFT energy =     -648.495601279765
@    8    -648.49560128 -2.2D-05  0.00046  0.00011  0.01437  0.04044    692.9
         Total DFT energy =     -648.495609597310
         Total DFT energy =     -648.495613980818
@    9    -648.49561398 -1.3D-05  0.00060  0.00012  0.00994  0.03921    762.7
         Total DFT energy =     -648.495621060878
         Total DFT energy =     -648.495623874530
@   10    -648.49562387 -9.9D-06  0.00063  0.00012  0.00851  0.04497    832.5
         Total DFT energy =     -648.495630209055
         Total DFT energy =     -648.495634746577
@   11    -648.49563475 -1.1D-05  0.00053  0.00010  0.01409  0.04767    909.2
         Total DFT energy =     -648.495639435950
         Total DFT energy =   -648.495639435950
@   12    -648.49563944 -4.7D-06  0.00019  0.00006  0.00281  0.01513    955.1
         Total DFT energy =     -648.495647742280
         Total DFT energy =     -648.495648555850
@   13    -648.49564856 -9.1D-06  0.00043  0.00009  0.01134  0.05471   1031.3
         Total DFT energy =     -648.495653547621
         Total DFT energy =   -648.495653547621
@   14    -648.49565355 -5.0D-06  0.00039  0.00008  0.00274  0.01173   1072.7
         Total DFT energy =     -648.495677414053
         Total DFT energy =     -648.495678058553
@   15    -648.49567806 -2.5D-05  0.00045  0.00012  0.02472  0.10577   1153.6
         Total DFT energy =     -648.495681659713
         Total DFT energy =   -648.495681659713
@   16    -648.49568166 -3.6D-06  0.00020  0.00005  0.00135  0.00297   1199.7
         Total DFT energy =     -648.495683421480
         Total DFT energy =   -648.495683421480
@   17    -648.49568342 -1.8D-06  0.00005  0.00002  0.00254  0.00678   1250.0
         Total DFT energy =     -648.495683955188
         Total DFT energy =   -648.495683955188
@   18    -648.49568396 -5.3D-07  0.00009  0.00002  0.00133  0.00434   1291.3
         Total DFT energy =     -648.495684918261
         Total DFT energy =   -648.495684918261
@   19    -648.49568492 -9.6D-07  0.00012  0.00003  0.00209  0.00759   1332.6
         Total DFT energy =     -648.495685839396
         Total DFT energy =   -648.495685839396
@   20    -648.49568584 -9.2D-07  0.00012  0.00003  0.00261  0.00870   1374.0
         Total DFT energy =     -648.495687399588
         Total DFT energy =   -648.495687399588
@   21    -648.49568740 -1.6D-06  0.00009  0.00003  0.00410  0.01597   1419.8
         Total DFT energy =     -648.495689121699
         Total DFT energy =   -648.495689121699
@   22    -648.49568912 -1.7D-06  0.00012  0.00003  0.00647  0.02472   1465.7
         Total DFT energy =     -648.495691266031
         Total DFT energy =   -648.495691266031
@   23    -648.49569127 -2.1D-06  0.00021  0.00004  0.00690  0.02756   1507.1
         Total DFT energy =     -648.495693190952
         Total DFT energy =   -648.495693190952
@   24    -648.49569319 -1.9D-06  0.00014  0.00003  0.00698  0.02887   1557.6
         Total DFT energy =     -648.495694003852

 Vector   57  Occ=0.000000D+00  E= 1.509840D-01

 Vector   58  Occ=0.000000D+00  E= 1.582089D-01

 Vector   59  Occ=0.000000D+00  E= 1.673641D-01

 Vector   60  Occ=0.000000D+00  E= 1.728632D-01

 Vector   61  Occ=0.000000D+00  E= 1.836643D-01

 Vector   62  Occ=0.000000D+00  E= 2.147689D-01

 Vector   63  Occ=0.000000D+00  E= 2.279555D-01

 Vector   64  Occ=0.000000D+00  E= 2.407599D-01

 Vector   65  Occ=0.000000D+00  E= 2.690272D-01

 Vector   66  Occ=0.000000D+00  E= 2.806422D-01

 Vector   67  Occ=0.000000D+00  E= 3.121451D-01

 Vector   68  Occ=0.000000D+00  E= 3.158151D-01

 Vector   69  Occ=0.000000D+00  E= 3.374329D-01

 Vector   70  Occ=0.000000D+00  E= 3.596108D-01

 Vector   71  Occ=0.000000D+00  E= 3.943953D-01

 Vector   72  Occ=0.000000D+00  E= 4.920922D-01

 Vector   73  Occ=0.000000D+00  E= 4.988804D-01

 Vector   74  Occ=0.000000D+00  E= 5.118704D-01

         Total DFT energy =   -648.495694003852
@   25    -648.49569400 -8.1D-07  0.00011  0.00002  0.00379  0.01243   1599.0
         Total DFT energy =     -648.495694167426

                       DFT Final Molecular Orbital Analysis
                       ------------------------------------

 Vector   13  Occ=2.000000D+00  E=-1.019861D+01

 Vector   14  Occ=2.000000D+00  E=-1.123344D+00

 Vector   15  Occ=2.000000D+00  E=-1.113990D+00

 Vector   16  Occ=2.000000D+00  E=-1.040065D+00

 Vector   17  Occ=2.000000D+00  E=-1.030303D+00

 Vector   18  Occ=2.000000D+00  E=-8.821695D-01

 Vector   19  Occ=2.000000D+00  E=-7.920267D-01

 Vector   20  Occ=2.000000D+00  E=-7.861351D-01

 Vector   21  Occ=2.000000D+00  E=-7.513205D-01

 Vector   22  Occ=2.000000D+00  E=-6.837700D-01

 Vector   23  Occ=2.000000D+00  E=-6.471689D-01

 Vector   24  Occ=2.000000D+00  E=-6.138427D-01

 Vector   25  Occ=2.000000D+00  E=-5.915048D-01

 Vector   26  Occ=2.000000D+00  E=-5.320098D-01

 Vector   27  Occ=2.000000D+00  E=-5.100744D-01

 Vector   28  Occ=2.000000D+00  E=-4.988870D-01

 Vector   29  Occ=2.000000D+00  E=-4.863521D-01

 Vector   30  Occ=2.000000D+00  E=-4.731581D-01

 Vector   31  Occ=2.000000D+00  E=-4.710825D-01

 Vector   32  Occ=2.000000D+00  E=-4.602183D-01

 Vector   33  Occ=2.000000D+00  E=-4.535180D-01

 Vector   34  Occ=2.000000D+00  E=-4.501941D-01

 Vector   35  Occ=2.000000D+00  E=-4.182648D-01

 Vector   36  Occ=2.000000D+00  E=-4.089653D-01

 Vector   37  Occ=2.000000D+00  E=-4.039233D-01

 Vector   38  Occ=2.000000D+00  E=-3.933452D-01

 Vector   39  Occ=2.000000D+00  E=-3.834722D-01

 Vector   40  Occ=2.000000D+00  E=-3.691650D-01

 Vector   41  Occ=2.000000D+00  E=-3.638606D-01

 Vector   42  Occ=2.000000D+00  E=-3.252122D-01

 Vector   43  Occ=2.000000D+00  E=-3.140883D-01

 Vector   44  Occ=2.000000D+00  E=-2.885363D-01

 Vector   45  Occ=2.000000D+00  E=-2.846737D-01

 Vector   46  Occ=2.000000D+00  E=-2.732578D-01

 Vector   47  Occ=2.000000D+00  E=-2.605703D-01

 Vector   48  Occ=0.000000D+00  E=-6.439253D-02

 Vector   49  Occ=0.000000D+00  E=-2.009332D-02

 Vector   50  Occ=0.000000D+00  E=-4.951780D-03

 Vector   51  Occ=0.000000D+00  E= 3.922481D-02

 Vector   52  Occ=0.000000D+00  E= 5.900358D-02

 Vector   53  Occ=0.000000D+00  E= 8.468608D-02

 Vector   54  Occ=0.000000D+00  E= 1.114542D-01

 Vector   55  Occ=0.000000D+00  E= 1.284221D-01

 Vector   56  Occ=0.000000D+00  E= 1.409541D-01

 Vector   57  Occ=0.000000D+00  E= 1.509841D-01

 Vector   58  Occ=0.000000D+00  E= 1.582086D-01

 Vector   59  Occ=0.000000D+00  E= 1.673573D-01

 Vector   60  Occ=0.000000D+00  E= 1.728692D-01

 Vector   61  Occ=0.000000D+00  E= 1.836592D-01

 Vector   62  Occ=0.000000D+00  E= 2.147666D-01

 Vector   63  Occ=0.000000D+00  E= 2.279541D-01

 Vector   64  Occ=0.000000D+00  E= 2.407400D-01

 Vector   65  Occ=0.000000D+00  E= 2.690344D-01

 Vector   66  Occ=0.000000D+00  E= 2.806492D-01

 Vector   67  Occ=0.000000D+00  E= 3.121278D-01

 Vector   68  Occ=0.000000D+00  E= 3.157942D-01

 Vector   69  Occ=0.000000D+00  E= 3.374478D-01

 Vector   70  Occ=0.000000D+00  E= 3.595785D-01

 Vector   71  Occ=0.000000D+00  E= 3.943688D-01

 Vector   72  Occ=0.000000D+00  E= 4.921361D-01

 Vector   73  Occ=0.000000D+00  E= 4.988703D-01

 Vector   74  Occ=0.000000D+00  E= 5.118449D-01

     Multipole analysis of the density
     ---------------------------------

     L   x y z        total         alpha         beta         nuclear
     -   - - -        -----         -----         ----         -------
     0   0 0 0     -0.000000    -47.000000    -47.000000     94.000000

     1   1 0 0      0.673668     -0.376181     -0.376181      1.426030
     1   0 1 0      0.239525     -0.493683     -0.493683      1.226891
     1   0 0 1     -0.795875     -3.552119     -3.552119      6.308364

     2   2 0 0    -51.894108   -399.670988   -399.670988    747.447868
     2   1 1 0     -6.465732     24.759154     24.759154    -55.984039
     2   1 0 1      0.509957     18.440583     18.440583    -36.371209
     2   0 2 0    -44.683493   -659.548674   -659.548674   1274.413855
     2   0 1 1     -2.815274     -6.087337     -6.087337      9.359401

         Total DFT energy =   -648.495694167426
@   26    -648.49569417 -1.6D-07  0.00003  0.00001  0.00063  0.00172   1640.4
@   26    -648.49569417 -1.6D-07  0.00003  0.00001  0.00063  0.00172   1640.4

 Output coordinates in angstroms (scale by  1.889725989 to convert to a.u.)

  No.       Tag          Charge          X              Y              Z
 ---- ---------------- ---------- -------------- -------------- --------------
    1 C                    6.0000    -0.32748164    -2.30960526     0.20404436
    2 C                    6.0000     1.99179215    -0.87603704    -0.36564894
    3 C                    6.0000     0.89712358    -2.97057002     0.15886311
    4 C                    6.0000     2.06281920    -2.25054780    -0.13242801
    5 C                    6.0000     0.44351262     3.47791537    -0.27670038
    6 C                    6.0000    -0.42575532    -0.92414479    -0.03839206
    7 C                    6.0000     0.76181977    -0.21765657    -0.31661733
    8 O                    8.0000    -2.80234754    -1.00918311     0.31750947
    9 O                    8.0000     0.40433089     1.84629042     1.54399131
   10 O                    8.0000    -1.89721110     0.97521694    -0.32259803
   11 C                    6.0000    -1.79134790    -0.35902459     0.01484900
   12 C                    6.0000     0.52568654     2.12444734     0.35723358
   13 O                    8.0000     0.78496627     1.15640873    -0.62959681
   14 H                    1.0000    -2.83837344     1.24383662    -0.24403900
   15 H                    1.0000    -1.24359550    -2.84482593     0.42341895
   16 H                    1.0000     2.87768509    -0.29454787    -0.59017196
   17 H                    1.0000     0.94413886    -4.03740702     0.34621214
   18 H                    1.0000     3.02278994    -2.75417441    -0.17237725
   19 H                    1.0000    -0.45276575     3.52094565    -0.90425001
   20 H                    1.0000     0.38999496     4.24376131     0.49714685
   21 H                    1.0000     1.30782641     3.65313093    -0.92336475

 Total times  cpu:     1623.7s     wall:     1640.5s
